('pcct', 69);('figure', 52);('eidct', 37);('hu', 36);('ct', 34);('cnr', 22);('mtf', 21);('vmis', 18);('shr', 17);('vmi', 14);('rois', 12);('nr', 10);('multienergy ct', 10);('standard body kernel', 10);('pcct nr', 10);('pcd', 9);('head phantom', 8);('fc13', 8);('sd', 8);('cm water phantom', 8);('pcct vmis', 8);('image noise', 7);('eid', 6);('different dose levels', 6);('canon tos', 6);('roi', 6);('wwwl', 6);('mm slice thickness', 5);('phys med biol', 5);('radiology', 5);('cdzntebased', 4);('fov', 4);('spatial resolution', 4);('superior performance', 4);('kedge', 4);('energy bins', 4);('different materials', 4);('pcct eidct', 4);('teflon', 4);('dose levels', 4);('rmse', 4);('mtf eidct', 4);('med phys', 4);('pixel size', 3);('cdznte', 3);('normal resolution', 3);('asic', 3);('fbp', 3);('xray', 3);('iodine', 3);('kev image', 3);('electronic noise', 3);('different sizes', 3);('standard deviation', 3);('gaussian', 3);('mtf pcct', 3);('images', 3);('vmi hu', 3);('de', 3);('mtfmatched pcct', 3);('low contrast', 3);('spectral', 3);('prototype', 2);('contrasttonoise ratio', 2);('initial results', 2);('photon energy', 2);('fast kvp', 2);('prototype system', 2);('engineering prototype', 2);('ocr', 2);('canon eidct', 2);('tube', 2);('image quality', 2);('mas images', 2);('number accuracy uniformity', 2);('material', 2);('cm diameter', 2);('water phantoms', 2);('pp', 2);('ctp714', 2);('spectral mode', 2);('catphan ctp682', 2);('spectral modes', 2);('catphan', 2);('phantom sizes dose levels', 2);('poisson', 2);('rois pcct', 2);('compared eidct', 2);('eidct pcct nr', 2);('edge definition', 2);('head phantom images', 2);('dose reduction', 2);('image center', 2);('noise', 2);('noise reduction', 2);('material quantification', 2);('similar noise level', 2);('uniformity measurement', 2);('accuracy noise comparison', 2);('cm water', 2);('high contrast rods', 2);('vmi multienergy ct', 2);('cnr eidct', 2);('eidct figure', 2);('projected', 2);('measured', 2);('pcct vmis multienergy ct', 2);('head phantom measurements', 2);('mm slice thickness images', 2);('level concentration', 2);('ground', 2);('concentration mgml', 2);('value mgml', 2);('standard body recon kernel', 2);('original image', 2);('mm diameter target', 2);('lungman', 2);('display', 2);('dect', 2);('quantitative accuracy', 2);('proc spie', 2);('yu z', 2);('fda', 2);('roessl e proksa r kedge', 2);('multibin photon', 2);('spectral photon', 2);('imaging', 2);('comprehensive', 1);('fieldofview photon counting ct', 1);('phantom studies xiaohui zhan1 ruoqiao zhang1 xiaofeng niu1 ilmar hein1 brent budden1 shuoxing wu1 nicolay markov1 cameron clarke1 yi qiang1 hiroki taguchi2 keiichi nomura3 yoshihisa muramatsu3 zhou yu1 tatsushi kobayashi3 richard thompson1 hiroaki miyazaki2 hiroaki nakai2', 1);('medical research', 1);('usa inc', 1);('deerpath', 1);('vernon', 1);('il usa', 1);('medical system corporation', 1);('otawara tochigi japan', 1);('3national cancer', 1);('centre', 1);('kashiwanoha kashiwa japan abstract photon', 1);('ct pcct', 1);('research focus', 1);('recent', 1);('studies advancements', 1);('pcds', 1);('contrast noise spatial resolution performance', 1);('systems multienergy threshold detection', 1);('photon energy measurement', 1);('enable material decomposition spectral', 1);('work report performance evaluation', 1);('prototype fullsize photon', 1);('various phantom', 1);('studies prototype system supports', 1);('mm scan fieldofview', 1);('mm cone coverage isocenter', 1);('phantom', 1);('mas assess', 1);('number accuracy uniformity noise spatial resolution material differentiation quantification qualitative quantitative evaluations', 1);('superior image quality', 1);('conventional energy', 1);('projection domain material decomposition approach', 1);('multiple energy bin measurements', 1);('virtual monoenergetic images', 1);('iodine calcium concentrations improvements lead', 1);('high low contrast study objects', 1);('iodine contrast agent', 1);('cnr eidct pcct', 1);('generate superhigh resolution', 1);('spatial resolution limit', 1);('huge potential clinical settings', 1);('xiaohui zhan', 1);('keywords xray computed tomography', 1);('high resolution image quality', 1);('introduction', 1);('active research development', 1);('recently', 1);('clinical product', 1);('new era', 1);('clinical adoption', 1);('various clinical applications', 1);('eid ct', 1);('measurement needs twostep conversion process', 1);('optical photons optical photons', 1);('electrical signals photodiode result amplitude signal proportional photon energy', 1);('energy photons material', 1);('limitation energy', 1);('electronic noise frontend electronics', 1);('part measurement number photons', 1);('low electronic noise', 1);('degrades image quality addition scintillator pixels reflector finite thickness', 1);('optical crosstalk increases dose penalty pixel size', 1);('small limitations', 1);('electric signal', 1);('total energy', 1);('time interval', 1);('eid pcd', 1);('measures energy incident photon type measurement results', 1);('removes frontend', 1);('electronic noise setting', 1);('need reflective material pixels', 1);('dose penalty', 1);('multiple energy bin measurement spectral information', 1);('current dual energy', 1);('de eidct', 1);('dualsource spectrum', 1);('flexible energy threshold setting', 1);('measurements target', 1);('common contrast agents iodine gadolinium novel nanoparticles', 1);('cdte cdznte', 1);('common room temperature semiconductors applications', 1);('wide band gap high density high', 1);('effective atomic number', 1);('cdte', 1);('dark current prone polarization', 1);('regards manufacture brittleness performance eg thermal stability charge', 1);('furthermore', 1);('due nature detection physics processes semiconductor materials', 1);('spectral response', 1);('ideal effects xray florescence kescape', 1);('compton', 1);('pulse pileup complications', 1);('frontend electronics', 1);('order assess', 1);('practical benefits', 1);('nonideal factors explore potential', 1);('new applications', 1);('fullsize photon', 1);('introduce key', 1);('technical aspects engineering prototype photon', 1);('series phantom studies', 1);('comprehensive assessment image quality', 1);('example', 1);('images prototype system', 1);('qualitative quantitative analysis results', 1);('particular key studies', 1);('canon', 1);('brief summary outlook', 1);('future system development plan', 1);('materials methods', 1);('description', 1);('canon aquilion one vision ct', 1);('array populates', 1);('fan angle', 1);('mm cone direction isocenter 1d', 1);('asg', 1);('mode readouts', 1);('grid micro pixels', 1);('input image reconstruction', 1);('inplane detection pitch', 1);('canons', 1);('super high resolution', 1);('mode readout micro pixel', 1);('processing image reconstruction', 1);('pixel output', 1);('energy bins measurements', 1);('mode generates images', 1);('events photon energy', 1);('kev spectral mode generates images', 1);('energy bins threshold settings', 1);('electrical charges', 1);('sensor incident photon signal', 1);('series processing frontend readout electronics', 1);('chargesensitive amplifier', 1);('csa', 1);('circuitry design', 1);('maximum event rate', 1);('time deadtime', 1);('nonparalyzable detection model', 1);('optimal', 1);('deadtime enhances', 1);('sufficient collection', 1);('icr asic', 1);('performs form pileup correction restore baseline high flux regime pulses overlap', 1);('spectral distortion', 1);('voltage signal pixel', 1);('energy discriminators', 1);('reference levels', 1);('appropriate counters', 1);('technical specifications engineering prototype', 1);('study scans', 1);('circular mode', 1);('rotation speed tube', 1);('left canons', 1);('right', 1);('illustration prototype', 1);('pixel readout schematic', 1);('micro pixels', 1);('mode utilizes readout', 1);('individual micro pixels processing image reconstruction', 1);('nonparalyzable detection model incident', 1);('icr', 1);('ideal linear reference', 1);('pulse pileup', 1);('technical specification', 1);('technical', 1);('specification overview system', 1);('pcct engineering prototype eidct platform canon aquilion one vision detector', 1);('cdznte gos pda collimation', 1);('scan fov', 1);('focal size large', 1);('mm15 mm', 1);('small', 1);('mm08 mm', 1);('rotation', 1);('scan', 1);('circular readout', 1);('nr recon fbp', 1);('highlevel data processing flow diagram', 1);('prototype system configure way', 1);('outputs data micro pixel mode', 1);('indepth studies', 1);('projection data energy bin counts', 1);('tube flux variation correction data reformation', 1);('mode counts photon energy', 1);('lineintegral sinogram estimation step beam', 1);('account effect polychromatic beam spectrum', 1);('lineintegral sinogram', 1);('steps generate', 1);('image spectral mode', 1);('individual bin counts', 1);('projectiondomain material decomposition generate', 1);('basis material waterbone pathlength sinograms', 1);('basis material pathlength sinograms', 1);('reconstruction generate basis material images basis material images', 1);('generate virtual monoenergetic images', 1);('different kev images eg', 1);('kev vs', 1);('plot reference composition ground truth values', 1);('data processing flow diagram generate', 1);('spectral images', 1);('response variation pixel needs', 1);('unique response calibration table', 1);('ideal bin response function', 1);('incident beam spectrum detection response function', 1);('attenuation samples order', 1);('small number', 1);('data processing', 1);('phantom studies image quality evaluations', 1);('series system', 1);('comprehensive evaluations', 1);('spatial', 1);('resolution noise', 1);('quantification accuracy', 1);('phantom scans', 1);('aquilion one vision', 1);('spectral image comparison sequential rotaterotate dual energy scan mode', 1);('gantry geometry', 1);('tube beam filtration image reconstruction kernels', 1);('radiation doses', 1);('rigorous comparison', 1);('new detection technology', 1);('water cylindrical phantoms diameters', 1);('multiple material inserts', 1);('according iec', 1);('standards center regions interest', 1);('number noise measurements', 1);('material water', 1);('delrin acryl', 1);('measurements center', 1);('number uniformity assessment', 1);('phantom diameter 32cm inserts', 1);('accuracy evaluation inplane spatial resolution', 1);('catphan ctp682 phantom laboratory ny usa figure', 1);('mas radial edge profile', 1);('modulation transfer function mtf', 1);('high contrast line pair phantom measurement visual inspection', 1);('phantom laboratory ny usa', 1);('image inplane spatial resolution evaluation', 1);('spectral material decomposition accuracy', 1);('sun nuclear', 1);('wi usa', 1);('inserts concentration', 1);('mgml calcium inserts concentrations', 1);('hewater', 1);('phantom base', 1);('cm diameter bodysize', 1);('cm30 cm configurations', 1);('extract iodine calcium inserts concentrations addition', 1);('appropriate mask iodine calcium maps', 1);('concentration accuracies', 1);('pictures multienergy ct', 1);('phantom head body size', 1);('different concentrations iodinecalcium inserts', 1);('quantitative spectral', 1);('low contrast sensitivity', 1);('ctp515', 1);('fc13 cnr', 1);('different contrast', 1);('rois hewater', 1);('linear correlation iodine concentration', 1);('different iodine concentrations', 1);('iodine contrast agent reduction', 1);('results ct number accuracy noise uniformity', 1);('water images', 1);('uniform display window', 1);('wwwl3000 hu', 1);('free noticeable artifact', 1);('standard deviation center', 1);('number accuracy', 1);('different phantom sizes', 1);('noisetodose curves', 1);('theoretical relationship noise 1dose', 1);('statistics result', 1);('measurement good control pulse pileup effect relevant flux range image uniformity measurement results', 1);('cm water phantom meeting', 1);('typical criteria clinical diagnosis', 1);('kvp top bottom', 1);('cm diameter water phantoms', 1);('measurement center', 1);('roi pcct', 1);('water images measurements', 1);('calibration quality', 1);('image', 1);('electrical noise', 1);('low dose condition pulse pileup high dose condition', 1);('center peripheral water images', 1);('number uniformity measurement phantom sizes dose levels uniformity', 1);('multiple different contrasts results', 1);('number accuracy18cm 24cm 32cm 40cm5432101234550mas100mas200mas400mas50mas 100mas 200mas 400mas01020304050607080image', 1);('noise sd18cm', 1);('measured24cm measured32cm measured40cm measured18cm dose norm24cm dose norm32cm dose norm40cm dose norm', 1);('measurement range', 1);('good consistency', 1);('maximum deviations', 1);('pcct eidct ct', 1);('roi eid ref hu pcct hu', 1);('delrin', 1);('acryl', 1);('number measurements', 1);('electronic noise pulse pileup effect inplane spatial resolution', 1);('mode images', 1);('high contrast', 1);('catphan ctp682 figure', 1);('large focal spot size', 1);('standard body reconstruction kernel', 1);('condition reconstruction kernel', 1);('visual comparison demonstrates', 1);('inplane spatial resolution improvement', 1);('air gap inserts', 1);('left pcct nr', 1);('large focal spot', 1);('radial edge profile', 1);('right pcct', 1);('noise comparison', 1);('large focal spot size beam filtration', 1);('radiation dose', 1);('shows spatial resolution improvement', 1);('air gaps inserts', 1);('image shows', 1);('similar sharpness', 1);('potential benefit', 1);('eidct mtf', 1);('sinogram data', 1);('mtfs', 1);('pcct eidct figure', 1);('dose levels noise reduction', 1);('significant dose decreases', 1);('significant noise reduction dose levels', 1);('cm water phantom case', 1);('noticeable bias', 1);('improvement noise bias', 1);('noise grain', 1);('noise power spectrum shifts', 1);('display window', 1);('middle image', 1);('right image', 1);('entire phantom', 1);('center noise', 1);('low dose levels', 1);('similar noise level high dose levels', 1);('eidct pcct', 1);('spectral vmi', 1);('basic image quality', 1);('examples', 1);('cm water phantom kev images', 1);('quantitative measurement', 1);('low high kev', 1);('number center', 1);('roi hu', 1);('phantom sizes', 1);('accuracy noise', 1);('image inplane spatial resolution', 1);('de vmis figure', 1);('pcct vmi mtf', 1);('pcct nr vmis', 1);('mm slice thickness display window', 1);('pcct vmis roi1 roi2 roi3 roi4 roi5 max hu counting', 1);('similar performance', 1);('roi meansd', 1);('counting', 1);('pcct vmis mtf', 1);('compared', 1);('accurate material decomposition', 1);('quantify improvement', 1);('mas 5mm slice thickness', 1);('wwwl2000 hu', 1);('assess residual beam', 1);('mean ct', 1);('maximum deviation', 1);('number uniformity', 1);('whole image', 1);('average ct', 1);('roi hu max hu roi1 roi2 roi3 roi4 counting', 1);('different kev', 1);('image quantify material concentrations', 1);('vmis multienergy ct', 1);('material maps', 1);('iodine calcium rods concentration', 1);('head phantom dose levels results', 1);('iodine calcium rods concentrations', 1);('concentration levels', 1);('superior inplane resolution', 1);('monoenergetic sinogram data', 1);('vmi eidct', 1);('vmi mtf', 1);('noise performance', 1);('pcct vmis eidct vmis', 1);('whole energy range', 1);('additional spatial resolution noise', 1);('kev phantom consistent', 1);('photon statistics', 1);('spectral mode processing', 1);('additional noise', 1);('material decomposition step', 1);('mtf vmis', 1);('material quantification results', 1);('dose level', 1);('overall quantification accuracy', 1);('noise result optimal photon', 1);('original images', 1);('iodine calcium concentrations', 1);('mtfmatched', 1);('additional improvement', 1);('improvement minimum', 1);('thing note', 1);('superior resolution', 1);('room noiseresolution tradeoff optimize', 1);('low kev', 1);('diagnosis capability', 1);('linear correlation contrast concentration', 1);('different iodine concentration inserts', 1);('curve vs iodine concentrations', 1);('pcct eidct cnr pcct eidct', 1);('iodine concentration reduction', 1);('iodine concentration', 1);('top multienergy ct', 1);('vmis pcct', 1);('mm slice thickness window', 1);('wwwl60060 hu bottom', 1);('picture phantom inserts arrangement', 1);('iodine middle calcium', 1);('ground truth phantom configuration', 1);('iodine concentrations', 1);('different dose levels rootmeansquareerror', 1);('calcium concentrations', 1);('calcium', 1);('concentration accuracy', 1);('mas scans', 1);('concentration values', 1);('value materials reference results', 1);('iodine quantification accuracy noise', 1);('vmi mtf ground truth', 1);('iodine concentration mgml', 1);('cnr eid', 1);('iodine calcium objects', 1);('multiple concentrations average', 1);('left image', 1);('noise comparison shows', 1);('eidct vmis', 1);('phantom base material', 1);('right ratio', 1);('pcct vmi cnr eidct vmi cnr', 1);('vmi pcct vmis', 1);('cnr eidct vmis', 1);('energies contrast objects', 1);('improvement average', 1);('kev minimum', 1);('mgml iodine', 1);('solidwater background', 1);('different iodine concentrations mgml concentration levels', 1);('contrast concentration', 1);('iodine contrast usage clinical settings concentration level', 1);('mgml average', 1);('catphan ctp515 pcct nr', 1);('5mm thickness', 1);('fc13 pcct', 1);('low contrast supraslices subslices', 1);('contrast background', 1);('15mm diameter target', 1);('supraslice region background calculate', 1);('image increases', 1);('catphan ctp515 eidct pcct scans', 1);('fc13 display', 1);('wwwl10060 hu left eidct', 1);('ncr', 1);('supraslice contrast level', 1);('low contrast inserts', 1);('low contrast objects', 1);('low', 1);('contrast object', 1);('catphan ctp515 cnr', 1);('contrast level increases', 1);('mtf vision pcct pcct', 1);('mtf object', 1);('hu background', 1);('hu contrast', 1);('material decomposition noise', 1);('spectral resolution', 1);('major benefit', 1);('multienergy bin measurements', 1);('comparing', 1);('material decomposition approach', 1);('energy bin images', 1);('prone beam', 1);('errors energy bins', 1);('projection domain decomposition', 1);('multiple energy bin data', 1);('errors energy bin example', 1);('2energy bin data', 1);('kev vs 5energy bin data', 1);('kev visual inspection', 1);('good image quality general 2energy bin decomposition image shows', 1);('inserts quantitative comparison noise', 1);('cases results', 1);('energybin material decomposition', 1);('5energy bin decomposition', 1);('vs 2energy bin decomposition', 1);('head phantom scan', 1);('energy bin data', 1);('spectral images images', 1);('overall image quality', 1);('2bin decomposition image shows', 1);('phantom edge', 1);('quantitative noise comparison', 1);('pcct vmi', 1);('different energy bin data input material decomposition', 1);('head phantom scan scan data', 1);('original 5bin data', 1);('2bin data', 1);('2bin decomposition generates', 1);('noise image', 1);('decomposition input', 1);('bin decomposition', 1);('micropixel level readout reconstruction', 1);('images highcontrast line pair', 1);('catphan ctp714', 1);('small focal spot size image', 1);('lpcm pair', 1);('fc13 nr shr', 1);('large focal size suboptimal reconstruction kernel improvement spatial resolution', 1);('kyoto kagaku co ltd japan', 1);('phantom image', 1);('reveals details structure', 1);('high contrast resolution', 1);('catphan ctp714 pcct nr', 1);('right images', 1);('significant resolution improvement', 1);('hu figure', 1);('catphan ctp682 pcct nr shr', 1);('data', 1);('small focal spot', 1);('mm dfov', 1);('fc13 mtf', 1);('result shows', 1);('pcct shr', 1);('mtf nr', 1);('phantom images', 1);('corresponding difference image', 1);('nrshr', 1);('difference image', 1);('additional image', 1);('discussion summary', 1);('full fieldofview photon', 1);('performance phantom studies', 1);('performance tasks', 1);('diagnostic quality images', 1);('clinical dose levels', 1);('reduces image noise', 1);('low dose cases', 1);('due removal', 1);('appropriate energy threshold', 1);('image scan settings', 1);('different dose levels noise', 1);('image artifacts photon starvation', 1);('image quality clinical setting', 1);('improves image spatial resolution inplane detection pitch', 1);('crosstalk effect', 1);('due twostage conversion process crosstalk kernel', 1);('width macropixel', 1);('flexible readout modes', 1);('grid types', 1);('grids optimize', 1);('mode resolution', 1);('room tradeoff', 1);('optimize image quality', 1);('tasks example results', 1);('cm water phantom 50mas', 1);('images micropixel level readout', 1);('mtf nr shr', 1);('full potential', 1);('large focal spot size suboptimal reconstruction kernel', 1);('enable spectral', 1);('additional complications workflow data temporal inconsistency', 1);('dual source', 1);('projection domain decomposition approach', 1);('energy bin input spectral information', 1);('spectral image noise', 1);('5energy bin data', 1);('kevs 2energy bin data consistent', 1);('previous estimates', 1);('5energy bins', 1);('excellent accuracy uncertainty', 1);('rsme', 1);('mgml iodine calcium', 1);('mode findings', 1);('new opportunities spectral', 1);('registers photon', 1);('different tasks', 1);('work high contrast', 1);('low contrast cases', 1);('iodine contrast', 1);('diagnosis limitations study', 1);('current prototype system', 1);('isocenter supports circular scans', 1);('rotation support', 1);('real time data processing reconstruction', 1);('complex scan series', 1);('mimic clinical workflows', 1);('high precision tube', 1);('focal spot', 1);('mode spatial resolution capability', 1);('current modulation', 1);('aec aibased', 1);('additional dose', 1);('image quality enhancement limitations', 1);('future clinical prototypes conclusion', 1);('comprehensive phantom', 1);('experiments analysis', 1);('multiple advantages', 1);('indepth understanding', 1);('clinical scan conditions', 1);('invaluable insights design tradeoffs', 1);('currently', 1);('new generation clinical prototype', 1);('system development', 1);('coverage high precision', 1);('rotation speeds', 1);('scan workflows', 1);('enable patient studies', 1);('clinical values photon', 1);('detection technology', 1);('references', 1);('taguchi k iwanczyk js vision', 1);('xray detectors', 1);('kappler henning kreisler', 1);('schoeck', 1);('stierstorfer k flohr photon', 1);('xray tube currents contrast stability image noise multienergy performance', 1);('vol', 1);('persson huber', 1);('karlsson', 1);('energyresolved ct', 1);('gutjahr r halaweish', 1);('tomography clinical dose levels contrasttonoise ratio cadaver studies', 1);('invest radiol', 1);('news release', 1);('device advancement', 1);('computed tomography', 1);('sep', 1);('pourmorteza symons r', 1);('photoncounting ct', 1);('bain vivo human results imagequality assessment', 1);('ajnr j neuroradiol', 1);('dec', 1);('rajendran k petersilka henning', 1);('technical evaluation', 1);('willemink persson pourmorteza pelc n photoncounting ct', 1);('technical principles clinical prospects', 1);('leng', 1);('photoncounting', 1);('system design clinical applications', 1);('radiographics', 1);('vol39', 1);('rajendran k petersilka', 1);('full fieldofview highresolution photon', 1);('technical assessment', 1);('initial patient experience', 1);('oct', 1);('simohamed boccalini', 1);('coronary ct', 1);('firstinhuman results', 1);('may3032303313', 1);('shefer e altman behling r', 1);('state art', 1);('detectors sources literature review', 1);('curr radiol rep', 1);('johnson fink', 1);('dual', 1);('clinical practice', 1);('heidelberg germany springer', 1);('mccollough ch leng yu', 1);('fletcher jg dual', 1);('technical approaches clinical applications', 1);('physics medicine biology', 1);('simohamed cormode p', 1);('evaluation', 1);('gold nanoparticle biodistribution vivo', 1);('nanoscale', 1);('ostadhossein', 1);('multicolor', 1);('delineation bone micro damages', 1);('sub5 nm hafnia nanodots photon', 1);('advanced functional materials', 1);('muenzel', 1);('initial experience dualcontrast agent', 1);('blevis xray', 1);('ct spectral', 1);('tomography technology applications', 1);('crc', 1);('taguchi k zhang frey e wang x modeling', 1);('performance photon', 1);('energy response pulse pileup', 1);('feb', 1);('alvarez r e macovski energyselective', 1);('reconstructions xray', 1);('leng zhou', 1);('performance wholebody research photon', 1);('liu x persson', 1);('response model multibin', 1);('applications journal', 1);('schmidt g barber r', 1);('sidky e', 1);('estimate basis material maps', 1);('ieee transactions', 1);('dickmann j maier j', 1);('ratedependent method spectral distortion correction photon', 1);('ct proc spie vol', 1);('faby kuchenbecker', 1);('performance', 1);('todays dual energy', 1);('future multi energy', 1);('virtual noncontrast', 1);('iodine quantification simulation study', 1);('jul427434966', 1);('alvarez r estimator', 1);('energy selective', 1);('multibin pulse height analysis', 1);('may', 1);('zhan x wu hein markov n', 1);('study crosstalk effect', 1);('detectors impact system', 1);