('mapbi', 48);('ar', 44);('figure', 33);('pl', 23);('xps', 16);('pb', 12);('ion beam', 10);('fib', 10);('mapbi3', 10);('pbi', 10);('cpd', 8);('tem', 7);('salt lake city', 5);('ut', 5);('psc', 5);('fto', 5);('usa', 4);('ion beams', 4);('kpfm', 4);('figures', 4);('trim', 4);('photovoltaics innovation commercialization', 3);('laboratory los alamos nm', 3);('monte carlo', 3);('giannuzzi', 3);('kelvin', 3);('high resolution', 3);('etl', 3);('incident angle', 3);('ga', 3);('work function', 3);('hopg', 3);('afm', 3);('torr', 3);('us department', 3);('acknowledges support', 3);('ultramicroscopy', 3);('subsurface characteristics', 2);('electrical computer engineering', 2);('physics astronomy wright', 2);('engineering', 2);('sample surface', 2);('analysis', 2);('experimental results conjunction', 2);('atomic displacements', 2);('properties bulk', 2);('previous', 2);('si', 2);('pscs', 2);('force microscopy', 2);('methylammonium lead iodide', 2);('pl kpfm', 2);('htl', 2);('tin oxide', 2);('sno', 2);('sem', 2);('grain growth thermal', 2);('prominent peak', 2);('previous studies', 2);('kosasih', 2);('bandgap emission', 2);('mm x', 2);('raw datasets', 2);('pyrolytic graphite', 2);('pb ii', 2);('sample stage', 2);('dark brown', 2);('total energy loss', 2);('atomic displacement', 2);('nm thick subsurface', 2);('srimtrim', 2);('dead layer', 2);('high purity', 2);('uv', 2);('atomic number', 2);('electron microscopy', 2);('toledo toledo ohio', 2);('integrated nanotechnologies los alamos', 2);('phys', 2);('office science', 2);('dmr', 2);('stevie', 2);('microscopy', 2);('kim', 2);('vacuum', 2);('nano energy', 2);('physical chemistry', 2);('physics', 2);('ch', 2);('thin films', 2);('scientific', 2);('ieee', 2);('pvsc', 2);('w c', 2);('halide perovskites polished argon ion beam yulin hsu1 chongwen li2 andrew', 1);('jones3 michael pratt3 ashif chowdhury1 yanfa yan2 heayoung p yoon14', 1);('toledo oh', 1);('integrated nanotechnologies materials physics applications los alamos', 1);('materials', 1);('usa keywords', 1);('halide perovskite focused ion beam srim', 1);('abstract focused', 1);('section metal halide perovskites microstructural investigations', 1);('different pristine', 1);('deterioration mechanisms', 1);('complementary approaches measure subsurface characteristics', 1);('perovskite dentify chemical species', 1);('subsurface methylammonium lead iodi', 1);('beam irradiation', 1);('rich iodine deficient surface promotes', 1);('rapid phase segregation thermal', 1);('conditions hand', 1);('subsurface modification experiments', 1);('material integrity observation supports', 1);('subsurface care', 1);('intorduction ionbeam', 1);('sample preparation techniques', 1);('microstructural interfacial characteristics', 1);('thin film solar cells', 1);('compared', 1);('traditional chemical', 1);('fast site', 1);('mechanical damage', 1);('structures superficial', 1);('example liquid metal ion source eg 31ga', 1);('typical dual beam', 1);('fibsem', 1);('electron microscopy system', 1);('ray ion beam', 1);('nm beam', 1);('target material introduces cascade events', 1);('segment interest', 1);('postprocessing', 1);('beam damage practices', 1);('low energy', 1);('low temperature', 1);('broad argon ion beam 18ar', 1);('mm beam', 1);('region l ess', 1);('final thinning', 1);('applications fib', 1);('morphology local optoelectronic responses metal halide perovskite devices', 1);('smoot', 1);('h sample surfaces', 1);('atomicnanoscale measurements', 1);('beams introduce artifacts', 1);('sample topography', 1);('characteristics sample interest', 1);('numerous', 1);('transmission electron microscopy', 1);('beam energy', 1);('kev studies', 1);('structural compositional characteristics perovskite solar cells', 1);('environmental stressors', 1);('high fidelity', 1);('distinct potential distribution cross sectional', 1);('dark light illumination', 1);('ion migrations defect dynamics', 1);('beneficial r ecent publications', 1);('beam sensitivity hybrid organic inorganic perovskites', 1);('significant deterioration data acquisition', 1);('chemical bond breakage local', 1);('cathodoluminescence cl', 1);('spectra repeatedl', 1);('defect formation irreversible decomposition', 1);('rapid degradation', 1);('high energy electron beams', 1);('possible outer layer', 1);('processing accelerati ng', 1);('fast degradation', 1);('different pristine devices', 1);('herein', 1);('subsurface characteristics perovskites', 1);('millin g', 1);('smooth surface', 1);('optoelectronic characteristics', 1);('photoemission spectroscopy xps', 1);('identifies chem ical species', 1);('pl xps', 1);('rich iodine deficient surface', 1);('thin layer', 1);('nm damage', 1);('material integrity rest film', 1);('implications findings study deterioration mechanisms perovskites', 1);('possible uses', 1);('samples surface insensitive measurem ents eg', 1);('photon microscopy', 1);('results discussion', 1);('typical perovskite solar cell', 1);('front contact', 1);('etl au', 1);('photovoltaic measurements study', 1);('htl au', 1);('direct impact', 1);('1a illustrates configuration sample glass', 1);('beams section top surface', 1);('acceleration voltage', 1);('broad beam spot size', 1);('parallel sample surface', 1);('minutes room temperature setting beam focus', 1);('initial beam', 1);('edge sample', 1);('sample surface trapezoidal shape ch', 1);('areas sample', 1);('pristine perovskite sample', 1);('1c show representative', 1);('typical grain size pristine sample', 1);('sample roughness', 1);('film thickness porous structures', 1);('grain boundaries pinholes', 1);('primary focus', 1);('present report analyze subsurface characteristics', 1);('individual microstructural assessments', 1);('luminescence', 1);('spectroscopy laser beam excitation', 1);('nominal beam size', 1);('m2 laser power', 1);('possible light degradation measurements', 1);('fdtd', 1);('finite difference time domain simulations', 1);('th e absorption profile', 1);('nm illumination', 1);('refractive indices', 1);('ellipsometry study', 1);('simulation results', 1);('sensitive subsurface modification', 1);('details', 1);('supplementary', 1);('2a b display representative', 1);('2a corresponds bandgap', 1);('excellent agreement', 1);('bandgap emission decreases', 1);('overall intensity', 1);('strong recent literature', 1);('cl', 1);('ev w', 1);('authors sugges', 1);('mechanical stress', 1);('atomic orbital overlap amorphization', 1);('peak position', 1);('full width halfmaximum', 1);('fwhm', 1);('weak peaks', 1);('ev correspond', 1);('small portion surface consistent', 1);('large area', 1);('2c shows', 1);('intensity map', 1);('mm step size', 1);('color contrast reflects peak height', 1);('uniform', 1);('red whereas', 1);('region shows', 1);('plots magnitudes', 1);('2c high luminescence', 1);('area x', 1);('fwhm pl', 1);('ev show', 1);('significant peak', 1);('ample overall', 1);('bulk preserves', 1);('measures contact potential difference', 1);('cpd v cpd', 1);('tip sample surface tip samplecpdve', 1);('sample work function', 1);('tip work function', 1);('tip e', 1);('elementary charge', 1);('ptir', 1);('cantilever raster', 1);('scan rate', 1);('hz', 1);('layer sample', 1);('ambient environment', 1);('topography cpd', 1);('grain size pristine', 1);('100s nm', 1);('peak tovalley roughness', 1);('3b surface roughness', 1);('reduces 10s nm', 1);('minutes topography', 1);('porous structures pinholes', 1);('grain boundaries porosity', 1);('c display', 1);('distribution pristine', 1);('uniform surface potentials', 1);('electronic structures', 1);('individual microstructures', 1);('lonzoni', 1);('ambient condition vacuum', 1);('possible partial oxidation surface quantitative comparison', 1);('v cpd', 1);('value pristine', 1);('c work function', 1);('tip tip', 1);('cpd afm', 1);('standard references', 1);('au au', 1);('ev film', 1);('based', 1);('calc ulate work function', 1);('ev pristine', 1);('fto sno', 1);('vcpd', 1);('mv suggests', 1);('beam impact', 1);('electronic struct ures', 1);('subsurface partial oxidation air exposure', 1);('elemental changes', 1);('ray photoemission spectroscopy', 1);('nominal beam spot size', 1);('local chemical information', 1);('nm survey spectra', 1);('figure s3', 1);('pristine sample peaks organic elements c 1s', 1);('1s 1s', 1);('core level peaks inorganic atoms', 1);('apparent pristine sample 4d', 1);('ev 3d', 1);('ion beam exposure', 1);('peaks organic components', 1);('inorganic atoms', 1);('strong peaks', 1);('depth analysis', 1);('4a compares core level 1s spectra samples', 1);('weak 1s signal pristine control', 1);('partial oxidation surface evidence', 1);('contrast microstructures', 1);('kpfm figure', 1);('3c 1s signature', 1);('1s peak', 1);('4c shows core level 1s spectra c', 1);('broad c 1s peak contains', 1);('signatures c c c', 1);('peak intensity', 1);('elements ie c', 1);('bonds c 1s', 1);('coo', 1);('bonds ambient air', 1);('chemical deterioration', 1);('hand inorganic components', 1);('signals peaks doublet states 3d', 1);('interestingly pb', 1);('4f spectrum', 1);('sample show', 1);('additional new peaks', 1);('4f doublet peaks', 1);('blue dot lines', 1);('4e decompose peaks', 1);('gaussian lorentz', 1);('new peaks metallic lead', 1);('kumar', 1);('lattice oxidize lead monoxide', 1);('pbo', 1);('4f show summary compositional changes', 1);('ipb', 1);('ratio decreases', 1);('lead iodide', 1);('ion beam irradiation alters', 1);('atomic structure surface', 1);('phase segregation degradation', 1);('surface ion beams influences bulk deterioration heat stressor', 1);('separate sample geometry', 1);('parallel sample surface setting beam focus', 1);('ion beam propagates sample surface trapezoidal shape', 1);('red dot li ne', 1);('areas sample heat lamp', 1);('sample temperature', 1);('shows series sample images', 1);('different times observ e insignificant color', 1);('visible yellow spots', 1);('edge ion beam', 1);('region trapezoidal zone time', 1);('apparent color', 1);('min color', 1);('entire sample', 1);('complete compositional dissociation observation consistent', 1);('irreversible chemical dissociation', 1);('surprising observe', 1);('fast thermal degradati ion beam', 1);('initial compositional alteration', 1);('different degradation speeds', 1);('marginal color changes', 1);('entire area', 1);('defect states surface interfaces', 1);('significant role point defects bulk degradation mechanisms', 1);('preliminary experiment supports', 1);('sensitivity surface interface states metal halide perovskites thermal', 1);('processes elucidate', 1);('dynamics ion beam perovskites simulate', 1);('stopping', 1);('ions matter srim transport ions matter trim', 1);('program package', 1);('fundamental knowledge', 1);('atomic interaction c ollisions transport theory', 1);('damage profile', 1);('ion range', 1);('various materials', 1);('srim', 1);('experimental data whereas', 1);('simulates energy loss incident atom target electrons knock atoms', 1);('ion path material ou r', 1);('full cascade model', 1);('parallel surface', 1);('mapbi3 figure', 1);('standard data program', 1);('material parameters', 1);('ar mapbi', 1);('atomic weight displacement energy l attice energy surface energy etc', 1);('mass density', 1);('damage distribution', 1);('ions penetrate', 1);('nm energy loss ions recoils occurs', 1);('irrever sible ionization', 1);('6b shows part energy loss contribute lattice vibration', 1);('taken', 1);('estimate total', 1);('nm subsurface comparison simulate beam damage', 1);('map', 1);('ga fib', 1);('kv irradiation incident angle', 1);('damage cascade', 1);('pear shape', 1);('central axis', 1);('trajectory primary', 1);('nm depth', 1);('necessary high resolution microscopy measurements contour plots', 1);('6c summarize distribution profiles cases simulation results', 1);('useful insight beam damage profiles metal halide perovskites', 1);('subsurface characteristics instance', 1);('spontaneous photoluminescence proportional absorption profile38 estimate', 1);('nm thick surfaces', 1);('nm laser beam illumination', 1);('figure s1', 1);('atomic displacement eg local disorder point defects', 1);('dead layer hand', 1);('phonon energy subsurface immense energy deposition subsurface', 1);('thermal conductivity', 1);('wmk', 1);('increase local temperature', 1);('experimental results signature presence', 1);('summary conclusions', 1);('ion beam exposure metal halide perovskite', 1);('irradiation lowers bandgap', 1);('surface potential', 1);('signatures chemical modification', 1);('analysis shows organic components eg c', 1);('inorganic signatures beam exposure', 1);('rich iodine deficient surface experiments', 1);('simulations sugge st presence', 1);('complexes subsurface', 1);('atomic displacement local', 1);('specifically', 1);('practical use ion beams', 1);('care perovskite measurements', 1);('stressors thickness', 1);('local heat', 1);('eg cryogenic sample stage kinetic beam energy eg', 1);('low beam voltage', 1);('subsurface modification work supports rest', 1);('perovskite samples', 1);('subsurface surface insensitive measurement approaches', 1);('lbic', 1);('laser beam', 1);('current wavelengths laser beams tune profiles photon absorption excess carrier generations', 1);('experimental section psc', 1);('fabrication glass substrates', 1);('acetone isopropyl alcohol', 1);('ipa', 1);('di', 1);('atomic layer deposition', 1);('ald', 1);('picosun', 1);('tetrakisdimethylamin otiniv', 1);('water precursors', 1);('precursor ink', 1);('mm lead iodide', 1);('mm methylammonium iodide', 1);('mai dimethylformamide dmf', 1);('mm lead bisdicyanoamide', 1);('pbscn', 1);('dimethyl sulfoxide', 1);('dmso mapbi', 1);('spin speed', 1);('spin step ie', 1);('solvent diethyl ether', 1);('ce nter sample', 1);('minutes samples', 1);('environmental conditions', 1);('shallow', 1);('fischione model', 1);('surface roughness', 1);('layer system equip', 1);('ion sources angle', 1);('direction parallel sample surface', 1);('ion gun', 1);('rotation experiment', 1);('argon gas', 1);('ion sources base pressure', 1);('current set', 1);('faraday', 1);('proper system operation quantitative estimation beam energy', 1);('minutes room temperature', 1);('hyperspectroscopy', 1);('light source', 1);('nominal power', 1);('w sample', 1);('lexel quantum', 1);('shg cw', 1);('tunable visible argon ion laser', 1);('cambridge laser laboratories inc pl', 1);('mm1 holographic', 1);('numerical aperture', 1);('reflective objective lens', 1);('lmm40x uvv thorlabs', 1);('confocal hole diameter', 1);('mm point', 1);('mm diameter area', 1);('pixel size', 1);('mm x directions hyperspectroscopy', 1);('mm diameter area spatial pixel focal height', 1);('space pixel', 1);('signal spectral window', 1);('mm height range', 1);('mm z axis resolution', 1);('bruker pfqne', 1);('work function values', 1);('surface potentials', 1);('ev sample maps', 1);('feedback force setpoint', 1);('nn scan rate', 1);('hz xray', 1);('photoemission spectrosco py', 1);('al k x', 1);('ray source', 1);('kev kratos axis ultra dld', 1);('load lock', 1);('vacuum pressure', 1);('analysis chamber', 1);('anode voltage', 1);('typical beam spot size', 1);('neutral gun', 1);('charge effect', 1);('energy resolution', 1);('ev survey scans', 1);('ev high resolution spectra', 1);('core level peak c 1s c c bonds', 1);('peak', 1);('quantitative analysis eg', 1);('atomic concentration element', 1);('commercial software average matrix', 1);('relative sensitivity factors', 1);('casaxps origin pro thermal', 1);('qualitative', 1);('thermal degradation', 1);('psc ar', 1);('heat lamp', 1);('ceramic lamp heater', 1);('w diameter', 1);('cm sample stage', 1);('type thermal couple', 1);('distance top sample bottom lamp', 1);('uniform heat distribution sample stage stage temperature', 1);('value eg', 1);('control samples proximity lamp series pictures', 1);('minute intervals hour samples', 1);('yellow eg', 1);('pbi2 monte carlo', 1);('software package study', 1);('beam interaction metal halide perovskites', 1);('srimtrim stopping', 1);('ions', 1);('transport', 1);('ions matter srimtrim', 1);('multiple inelastic collisions models range damage recoils thermal', 1);('simulation configuration', 1);('ion data', 1);('atomic mass 39962u whereas', 1);('nm thick', 1);('target material density', 1);('standard values', 1);('atomic weight displacement energy lattice energy urface energy component', 1);('modification model', 1);('ions simulation', 1);('matlab', 1);('schematics', 1);('samples pristine b', 1);('beams representative', 1);('c pristine', 1);('photoluminescence pl', 1);('responses pristine', 1);('b wavelength', 1);('nm corresponds', 1);('ev bandgap', 1);('peak intensities', 1);('nm center area', 1);('intensity regions', 1);('intensity', 1);('width sample length', 1);('white arrow c', 1);('topography mapbi', 1);('atomic force microscopy', 1);('pristine b', 1);('samples peak tovalley surface roughness reduces', 1);('processes c shows contact potential difference', 1);('images b average', 1);('pristine surface', 1);('mv increases', 1);('x ray photoemission spectroscopy profiles pristine', 1);('black dots', 1);('red squares samples', 1);('significant', 1);('decreases organic compositions', 1);('sample 1s b', 1);('1s c c 1s', 1);('signatures iodine', 1);('f lead', 1);('incre ase', 1);('additional peaks', 1);('4f doublet peaks infer introduction metallic lead', 1);('beam irradiation f', 1);('summary', 1);('tomic percentage', 1);('ion beam irradiation', 1);('series photographs', 1);('trapezoidal region sample', 1);('red dot lines', 1);('ion beam damage', 1);('distribution', 1);('total ion range', 1);('plots', 1);('ionization profiles primary', 1);('ions recoils inset displays energy l oss primary ions recoils phonons c', 1);('contour', 1);('distribution total', 1);('atomic displacement c', 1);('surface simulations', 1);('damage layer', 1);('associated content supporting information fdtd', 1);('pdf author information corresponding author heayoung p yoon electrical computer engineering materials', 1);('usa email', 1);('present addresses yulin hsu', 1);('usa chongwen li', 1);('usa andrew', 1);('jones', 1);('usa michael pratt', 1);('usa ashif chowdhury electrical computer engineering', 1);('usa yanfa yan', 1);('astronomy wright', 1);('acknowledgment', 1);('k powell p perez p lysak', 1);('valuable discussions', 1);('analysis work research', 1);('energys', 1);('energy efficiency', 1);('energy eere de foa', 1);('program award number', 1);('de ee0008985', 1);('part center', 1);('integrate nanotechnologies', 1);('user facility', 1);('energy doe', 1);('los alamos', 1);('laboratory', 1);('affirmative action', 1);('equal opportunity employer', 1);('triad', 1);('national security', 1);('llc', 1);('energys nnsa', 1);('contract 89233218cna000001', 1);('prett', 1);('laboratory directed', 1);('research development', 1);('ldrd', 1);('award 20210640ecr', 1);('yan', 1);('nsf', 1);('work su pport', 1);('ustar', 1);('facilities university', 1);('mrsec program nsf', 1);('h yoon', 1);('nsf career', 1);('references', 1);('f review', 1);('specimen preparation', 1);('micron', 1);('huang z combining ar', 1);('quality sitespecific', 1);('samples journal', 1);('ahn h jang review', 1);('developments micronanoscale fabrication', 1);('introduction', 1);('ion beams instrumentation theory techniques practice', 1);('springer', 1);('york', 1);('bischoff', 1);('mazarov p bruchhaus', 1);('gierak j liquid', 1);('metal alloy ion sources', 1);('ion beam technology', 1);('applied physics reviews', 1);('kato n reducing', 1);('ion beam damage transmission electron microscopy samples journal', 1);('turner e sapkota k r hatem', 1);('lu p wang g jones k wet', 1);('lamellae damage', 1);('free analysis', 1);('campin j bonifacio', 1);('nowakowski p fischione p e giannuzzi', 1);('narrow beam argon ion milling ex situ lift fib specimens mounted', 1);('carbon supported grids', 1);('asm', 1);('meng x tian x zhang zhou j zhang liu z chen', 1);('insitu characterization understanding degradation perovskite solar cells solar rrl', 1);('ran j dyck wang x yang', 1);('geohegan', 1);('xiao k electron beam related studies halide perovskites challenges opportunities advanced energy materials', 1);('di girolamo phung n kosasih', 1);('u di giacomo', 1);('matteocci', 1);('smith j flatken kbler h turren cruz h mattoni cin', 1);('rech', 1);('latini divitini g ducati', 1);('di carlo dini abate ion migration induced amorphization phase segregation degradation mechanism planar perovskite solar cells advanced energy materials', 1);('seo h kim j h kim h chung h na', 1);('observation heat', 1);('degradation single triple cation planar perovskite solar cells', 1);('byeon j kim j kim j lee g bang k ahn n choi', 1);('transport layer', 1);('dependent electronic band', 1);('perovskite sola r cells correlation', 1);('device degradation', 1);('acs energy', 1);('zhao zhou', 1);('han z yu zhao q effects', 1);('ion migration improvement strategies operational stability perovskite olar cells', 1);('chen zhang zhao j mi z zhang j cao j feng j zhang g qi j li j gao p transmission', 1);('electron microscopy organic inorganic hybrid perovskites myt hs truths science', 1);('bulletin', 1);('deng h perovskite', 1);('crystal planes', 1);('hrtem nature', 1);('e6 e7', 1);('u divitini g orri j', 1);('tennyson e kusch g oliver r stranks ducati', 1);('optical', 1);('halide perovskite device cross sections', 1);('technique', 1);('zhou yang vasiliev', 1);('garces h', 1);('zhao wang pang zhu k padture n p', 1);('growth control', 1);('nh', 1);('solidstate precursor reaction', 1);('efficient planar perovskite solar cells journal', 1);('materials chemistry', 1);('ghimire k zhao cimaroli ke', 1);('yan podraza n j optical', 1);('ch3nh3pbi3', 1);('atmospheric exposure journal', 1);('physics applied physics', 1);('lumerical', 1);('computation solutions', 1);('tcad', 1);('shirayama kadowaki h miyadera sugita tamakoshi kato fujiseki murata hara murakami n fujimoto chikamatsu fujiwara h optical transitions hybrid perovskite solar cells ellipsom', 1);('density functional theory quantum efficiency analyses', 1);('mathrmch3 mathrmnh3 mathrmpbi3', 1);('physical review applied', 1);('alvarado leaos', 1);('cortecchia folpini g srimath kandada r petrozza optical gain lead halide perovskites measured', 1);('stripe length method learn avoid pitfalls advanced optical materials', 1);('chen x xia huang q li z mei hu wang cheacharoen r rong han h tailoring dimensionality hybrid perovskites mesoporous carbon electrodes type ii', 1);('alignment enhanced performance', 1);('hole', 1);('free perovskite solar cells advanced energy materia', 1);('chandra shakher p application atomic', 1);('microscopy organic perovskite photovoltaics recent', 1);('atomic', 1);('microscopy raman spectroscopy materials characterization chandra shakher p samir k eds intechopen rijeka', 1);('lanzoni e gallet spindler', 1);('ramirez boumenou', 1);('k siebentritt redinger', 1);('force microscopy operation modes environment grain boundary ba nd', 1);('cu ga se2', 1);('solar cells', 1);('panchal v pearce r yakimova r tzalenchuk kazakova standardization', 1);('surface potential measurements graphene domains', 1);('gallet lanzoni e redinger effects annealing', 1);('coevaporated methylammonium lead iodide perovskites', 1);('kelvin probe', 1);('microscopy ultra', 1);('photovoltaic specialists conferenc', 1);('olthof meerholz k substrate', 1);('dependent electronic structure film formation', 1);('guo x mccleese', 1);('kolodziej', 1);('samia', 1);('zhao burda', 1);('identification', 1);('characterization intermediate phase hybrid organic inorganic', 1);('dalton transactions', 1);('rajendra kumar g dennyson savariraj karthick n selvam balamuralitharan', 1);('kim h j viswanathan k k vijaykumar prabakar k phase', 1);('transition kinetics surface', 1);('states methylammonium lead iodide perovskite', 1);('chemistry', 1);('lin', 1);('lo', 1);('li j x wang k tang j', 1);('fong z', 1);('decomposition perovskites ultrahigh vacuum condition npj', 1);('material degradation', 1);('shibayama n cojocaru', 1);('uchida kondo segawa h real', 1);('situ observation microstructural', 1);('organometal halide perovskite induced thermal degradation advanced functional mate', 1);('kim n k min h noh cho e jeong g joo ahn', 1);('lee j kim ihm k ahn h kang lee h kim', 1);('thermally induced degradation ch3nh3pbi3 perovskite solar cells', 1);('synchrotron radiation analysis scientific', 1);('dunfield p bliss', 1);('zhang', 1);('luther j zhu k', 1);('hest', 1);('reese berry j j defects degradation mechanistic understanding degradation perovskite solar cell devices modules advanced energy material', 1);('ziegler j', 1);('ziegler biersack j p srim', 1);('range ions matter', 1);('international conference', 1);('ion beam analysis', 1);('luo p sun x li yang', 1);('shao', 1);('z zhen', 1);('xu', 1);('correlation structural evolution device performance ch3nh3pbi3 solar cells proton irradiation acs applied energy materials', 1);('stuckelberger nietzold', 1);('g n', 1);('west b', 1);('werner j niesen', 1);('ballif', 1);('rose v fenning p bertoni elemental', 1);('distribution charge collection nanoscale perovskite solar cells', 1);('photovoltaic specialists', 1);('roosbroeck', 1);('shockley', 1);('photon radiative recombination electrons holes germanium physical review', 1);('heiderhoff r haeger pourdavoud n hu al khafaji mayer chen scheer h', 1);('riedl thermal conductivity methylammonium lead halide perovskite single crystals thin films comparative', 1);('sess j mueller e wepf r minimiza', 1);('tion amorphous layer', 1);('uhr em ultramicroscopy', 1);('barber j radiation', 1);('damage ion', 1);('specimens characteristics', 1);('methods damage limitation', 1);('ko yi k', 1);('petrov kim', 1);('measurement', 1);('estimation temperature rise', 1);('sample ion', 1);('wang', 1);('xiao', 1);('yu zhao awni r grice', 1);('r ghi', 1);('k constantinou liao', 1);('cimaroli j liu p chen j podraza n j jiang', 1);('al jassim zhao x yan understanding eliminating hysteresis highly efficient planar perovskite solar cells advanced energy materi', 1);