('rydberg', 14);('fig', 13);('doppler', 12);('mhz', 8);('eit', 5);('lo', 3);('electric eld', 2);('coupling', 2);('d\x1a', 2);('hamiltonian', 2);('seitv', 2);('maxwell', 2);('p2\x19', 2);('lo2\x19\x1804 mhz', 2);('o10', 2);('c l', 2);('sensitivity optimization', 1);('antennaspeter b', 1);('weichmanfast labstm bae systems', 1);('district avenue', 1);('burlington', 1);('december', 1);('2022radio frequency antennas', 1);('atoms principle', 1);('sensitivities beyondthose', 1);('conventional wire antenna', 1);('long wires', 1);('wavelength paper', 1);('theoretical investigation', 1);('antenna sensitivity', 1);('parameter regimes', 1);('orders magnitude sensitivity increase', 1);('special interest threelaser setups proposedto compensate atom', 1);('tobe advantageous restore sensitivity', 1);('dopplerlimited', 1);('signi cant', 1);('additional o resonance reductionsrydberg atoms', 1);('exciting ground stateelectron high orbit', 1);('atomic state', 1);('electric dipole moment', 1);('principal quantum number naspry\x18ea0n2wherea0isthe', 1);('bohr', 1);('radius no102 implies potentialo104 increase', 1);('strength atom withan incident external', 1);('eintdesigning', 1);('practical devices', 1);('number advances', 1);('detection', 1);('states energy di erence', 1);('close tothe resonance condition \x01', 1);('eryinwhereinis', 1);('example', 1);('threelaser vestate87rb', 1);('atomsetup combination', 1);('probe dress coupling', 1);('beamspromote atom ground state j1ito selectedn', 1);('state j4i', 1);('additional vapor cell', 1);('rf', 1);('local oscillator', 1);('rydbergstatej5ilower', 1);('energy case incident eld withsmall frequency di erence jin\x00loj', 1);('uences theprobe beam transmission', 1);('peit', 1);('dominant single photondecay paths', 1);('values example', 1);('khzincident eld center frequency', 1);('thephoton unit angular momentum frequency tunerpart setup', 1);('di erent statepairs', 1);('unprecedented coverage fromneardc', 1);('thz', 1);('regimes 68the', 1);('state population', 1);('laser setup', 1);('exciting atom', 1);('sequence transitions focus 3laser setupfig', 1);('recent 2laser setup analysis', 1);('combination laser local oscillator', 1);('incident eld illumination creates coherent superpositionof core', 1);('tunedthis state', 1);('ein', 1);('readout variation', 1);('probe', 1);('beam transmissionpeitt', 1);('pphtp0wherep0is', 1);('laser power', 1);('pphthe', 1);('power photodetector', 1);('e ect knownas', 1);('eit therydberg', 1);('rabi', 1);('frequencyryt 1eryt\x01dry12lo int 1with', 1);('large transition dipole moment dry2', 1);('eryeloeinthe', 1);('total eld', 1);('narrow band', 1);('multiplier e\x00ilothasbeen', 1);('narrow band communication signal', 1);('thesmall frequency di erence \x01 inin\x00lo1315we study paper adiabatic linear sensitivityseitde', 1);('peitlo seitlointojinj2\x01inlo', 1);('2in identify', 1);('seitpeitlo', 1);('indicatedby error term', 1);('linear regime sensitivity degrades', 1);('o resonance j\x01inj', 1);('therate', 1);('antenna bandwidth forthe', 1);('state setting', 1);('detail elsewherethe', 1);('strong illuminations', 1);('classiarxiv221213274v1 physicsatomph', 1);('dec', 1);('top sensitivity stheitt', 1);('dopplerdetuning', 1);('1d setup', 1);('kpkcvertical cyan lines mark zero crossings kcis', 1);('parameter \x01', 1);('ckcvxat', 1);('true physical sensitivity kphysckp', 1);('red lines 1of value', 1);('point \x14dopp\x11kdkp\x001', 1);('experimentally', 1);('parameters l 1cm', 1);('pdclo2\x19', 1);('all\x01 0inset', 1);('expanded', 1);('main peak', 1);('o10\x003', 1);('scale consistent', 1);('o1 mhz', 1);('spectral linewidths', 1);('bottom velocity', 1);('seitvx', 1);('prlopvxptheit', 1);('ofits thermal average', 1);('stheitaway', 1);('dueto combination cancelation vxpopulations andspectral peak narrowingcal', 1);('stark', 1);('spontaneous decays', 1);('full atomphoton eld problem', 1);('atom states', 1);('densitymatrix \x1a', 1);('ve case illumination', 1);('states equation motiont\x1ai\x1ah', 1);('unitary evolution', 1);('hamiltonian h', 1);('nonunitary relaxation', 1);('thelindblad operator', 1);('spontaneous decay rates', 1);('dmn\x0012\x1amnpp', 1);('mp npform6ndnnpp\x1app pn\x00\x1ann npdue treelike structure', 1);('excitation loops eg additionallaser', 1);('states j3ij5iorj2ij4i onemay', 1);('frame inwhich', 1);('bare atom energy levels \x01 nn\x00m\x00mnis', 1);('illumination coufig', 1);('sensitivity vs', 1);('2d star', 1);('ckc\x01vis', 1);('\x12crelative to\x12doppc \x001075\x0ewith xedjkcj sensitivity curve', 1);('maximum magnitudes', 1);('dressing', 1);('laser amplitude', 1);('d2\x19\x1830 mhz parameters', 1);('lindblad', 1);('absence incident eld 0the', 1);('timeindependent witho diagonal elements', 1);('hmn\x00mn2', 1);('diagonal elements', 1);('treebranch partial sums detuningsfor velevel system', 1);('p2', 1);('0\x03p2 \x01', 1);('\x03d2 \x01', 1);('\x03lo2 \x01 51cccca4in \x01', 1);('\x01p \x013 \x01p\x01d \x014 \x01p\x01d\x01c\x015 \x01p\x01d\x01c\x01lo lines', 1);('subspaces atom velocity v energylevels', 1);('relative stationary illuminators', 1);('shifts \x01 \x01 k \x01vwhere k', 1);('wavevector illuminator', 1);('thateven asv\x15lois leasto104', 1);('elox', 1);('vapor cell geometry', 1);('thedoppler', 1);('lowill', 1);('linear \x1a', 1);('elements acolumn vector \x1a', 1);('obtainst\x1ag\x1agihd 5with commutator matrix', 1);('hmnpq hqn\x0epm\x00hmp\x0eqnand', 1);('dsimilarly', 1);('steady state adiabatic density matrix \x1aadtherefore satis es', 1);('g\x1aad', 1);('existence', 1);('conservation probability', 1);('p\x01\x1a\x11tr\x1a', 1);('ptg', 1);('sensitivity derivative', 1);('willinvolve derivative \x1alo', 1);('sensitivity velocity spectra', 1);('prlopvptheitcorresponding lo2\x19', 1);('fig3', 1);('magnitude thermal averages', 1);('stheit', 1);('angle \x12doppc \x001075\x0efig', 1);('color scale', 1);('unchangedwhereais parameter', 1);('g\x001is', 1);('nonzero eigenvalues\x15nand', 1);('right eigenvectors ulrn normalizationulymurn\x0emn illumination parameter oneobtains', 1);('sparse matrix agiahthermal averages', 1);('appropriate nite', 1);('tdilute', 1);('vapors\x1ath\x12m2\x19kbt\x1332zdve\x00mv22kbt\x1av 7with', 1);('atomic mass', 1);('fort', 1);('the87rb thermalvelocity isvthpkbtm', 1);('ms \x15 1\x16mthis', 1);('shifts vth\x15170', 1);('naive estimate', 1);('stheitfor', 1);('1d 2d setups', 1);('vdependence causes di erentatom populations', 1);('oppositesign nearcancelingcontributions', 1);('stheitunless', 1);('enforces conditionp k', 1);('dopplercompensation', 1);('eg e', 1);('restores naive', 1);('dopplerreduced', 1);('\x1athin form 2ptheitl', 1);('pl2p02e\x00 prplstheitl', 1);('prloplptheitl rlop\x11rpllorpl\x11zl0im\x1ath21spsds', 1);('8with cell length l', 1);('2kpn0jd12j2\x0f0 atomicnumber density', 1);('n0', 1);('linear response result', 1);('desire toincrease photon', 1);('reasonable experimental compromise', 1);('thatre\x1ath21 corresponds index refraction', 1);('alternative interference measurementnote', 1);('absorption consequence decay processes', 1);('im', 1);('\x1ath nonzero', 1);('presence ofd\x1ath', 1);('large value 12spectral properties', 1);('hdominate', 1);('resonant behaviorbutd\x1ath generates', 1);('pvaries', 1);('ode', 1);('pairsps \x0012', 1);('pim\x1ath21pssrlops', 1);('p2psrlopsim\x14ps\x1ath21psps\x15with', 1);('densitymatrix derivatives', 1);('depending', 1);('onsetup details', 1);('simultaneous inhomogeneity', 1);('byexponentials components \x1athforl1 cm nd', 1);('pp0', 1);('betaken uniform', 1);('simpli cation', 1);('rpl lpim\x1ath21p', 1);('tostheitl \x00', 1);('plpim\x14\x1ath21plo\x15e\x00 prpl10for', 1);('numerical simplicity examples usethis limit end', 1);('questions optimal cell lengththe rst 1d setup', 1);('e ect demonstration isshown', 1);('maximum sensitivity', 1);('stheit\x1810\x003mrads\x001', 1);('value notshown occurs', 1);('kckpdopp\x111\x00kdkp\x00000549 drops', 1);('o102', 1);('physical valuekckp', 1);('kccannot physicallybe', 1);('\x01 c result arti cial', 1);('sensitivity regime', 1);('small local oscillator strength', 1);('lo theo10', 1);('khz linewidth implies similarlimitation linear response regime', 1);('stheitvalues lo2\x19', 1);('local minimum', 1);('lo2\x19\x1801mhz', 1);('positive valuesthe enhancement', 1);('dseen fig', 1);('inset', 1);('con guration k units radnm2d star', 1);('con guration kpkdkc', 1);('shows e ect perturbation angle \x12cofkcfor', 1);('various sensitivity magnitude allcases drops', 1);('corresponding to\x181', 1);('\x01 c', 1);('theo10\x004', 1);('peaksensitivity value', 1);('d2\x19', 1);('consistent withthe naive estimate increase', 1);('dandwith', 1);('theo diagonal components', 1);('dopplerdominated', 1);('diagonal components e ect saturates', 1);('d2\x19\x1830 mhzbecause', 1);('distribution 7insight e ects', 1);('1d 2d velocity spectra', 1);('respectivelyin bottom panel', 1);('di', 1);('erentatom populations', 1);('contribute di', 1);('forexample', 1);('2d case \x12c\x12doppc stationary atom value', 1);('large negative sensitivity regionsseitv\x18\x0003 1d 2d cases', 1);('point scale variation vis', 1);('unchanged geometry', 1);('positive negativeregions changes', 1);('stheit0', 1);('acombination cancellation regions', 1);('nearresonant regionnote', 1);('con guration', 1);('disadvantage simpler', 1);('upand geometric advantages', 1);('land', 1);('laser beams', 1);('experimental focus', 1);('active vapor volumecould', 1);('gain factor', 1);('similar 2d setup gains', 1);('sensitivity mrads\x001vs probe', 1);('beam amplitudep\x11p0 cell length', 1);('p2\x19\x145 mhz', 1);('soas stray', 1);('linear responseregime', 1);('parameters', 1);('fullinhomogeneous', 1);('ps', 1);('homogeneous', 1);('ps p', 1);('line highlights result', 1);('di erent optimal lengths', 1);('red dots', 1);('shows exploration', 1);('loamplitude', 1);('symmetry dictates', 1);('ptheitbeeven', 1);('stheit0 lo0', 1);('loyields', 1);('surprising result', 1);('seitchanges', 1);('lo2\x19\x1801 mhz', 1);('ano102 times', 1);('lo2\x19\x1810khz', 1);('dfinally', 1);('inhomogeneous probebeams', 1);('figure', 1);('exact approximate sensitivity results vs input power cell length differences', 1);('p0', 1);('cangive di erent predictions', 1);('maximum sensitivity point', 1);('p02\x19', 1);('mhz ineither', 1);('double sensitivity', 1);('cm coursethere', 1);('practical issues', 1);('avenues increasingrydberg antenna sensitivity', 1);('awaresetups highlight', 1);('demonstration ofano102 boost', 1);('stheit\x1810\x003upper', 1);('curve offig', 1);('typical experimental setups to\x1810\x001upper curve', 1);('lo5large', 1);('number extensions thetheory relevant applications presentedelsewhere measurement noise considerations eg photon shot noise replaces', 1);('seitby', 1);('signaltonoise ratiomeasure', 1);('snr pstheitqptheit', 1);('nonadiabatic e ectsand', 1);('signal bandwidth limitations wellas forms signal distortion', 1);('nonlinear response vestate projection', 1);('morecareful consideration', 1);('additional nearby butnonresonant states', 1);('basic conclusions', 1);('line shapes thehigh resolution limits interest hereacknowledgments material', 1);('advanced', 1);('projectsagency darpa contract hr001121c0122the', 1);('numerous conversationswith', 1);('craig price ying ju wang eric bottomley haoquan fan shane verploegh', 1);('e harris j e', 1);('imamo\x15', 1);('nonlinear', 1);('optical processes', 1);('phys rev lett', 1);('fleischhauer imamo\x15', 1);('jp marangoselectromagnetically', 1);('optics', 1);('incoherent media', 1);('rev mod phys', 1);('j p sha', 1);('h k\x7f', 1);('ubler readout enhancement microwave', 1);('proc spie', 1);('quantum technologies106740c', 1);('n thaicharoen k r moore anderson r cpowel e peterson g raithel electromagneticallyinduced', 1);('transparency absorption microwave', 1);('rb', 1);('vapor cell threecolor allinfraredlaser system', 1);('phys rev', 1);('fancher r scherer', 1);('john', 1);('ls marlow rydberg atom', 1);('electric field', 1);('sensors', 1);('sensing ieee trans q eng', 1);('g wade n', 1);('\x15sibali\x13 c', 1);('n r', 1);('melo j kondo cs adams k j weatherill realtime nearfieldterahertz imaging atomic optical fluorescencenature photon', 1);('yy jau carter vaporcellbased', 1);('atomic electrometry detection frequencies', 1);('physrev applied', 1);('h meyer z castillo k', 1);('cox p kunzassessment rydberg', 1);('atoms wideband', 1);('j phys', 1);('mol opt phys', 1);('3laser setup o ers', 1);('practical advantageoptical frequencies', 1);('expensive hardware10', 1);('simons h haddab j gordon', 1);('lholloway rydberg', 1);('measuring', 1);('thephase radio frequency wave', 1);('appl phys lett', 1);('j gordon simons h haddab', 1);('lholloway weak', 1);('electric eld detection sub1', 1);('hzresolution', 1);('radio frequencies', 1);('aip advances', 1);('h meyer', 1);('obrien p fahey k', 1);('cox', 1);('kunz optimal', 1);('atomic quantum', 1);('eitreadout phys rev', 1);('holloway simons j gordon dnovotny detecting', 1);('ieee antenwireless prop lett', 1);('n prajapati rotunno berweger simons aartusioglimpse', 1);('holloway', 1);('tv videogame', 1);('quantum receiver study arydberg', 1);('receivers bandwidth receptionclarity', 1);('avs quantum sci', 1);('bohaichuk booth k nickerson h tai jp sha', 1);('origins rydbergatom', 1);('electrometer transient response impact radiofrequency', 1);('phys rev applied', 1);